Siesta Version  : 4.1.5
Architecture    : unknown
Compiler version: GNU Fortran (conda-forge gcc 12.3.0-5) 12.3.0
Compiler flags  : x86_64-conda-linux-gnu-gfortran -march=nocona -mtune=haswell -ftree-vectorizee -fPIC -fstack-protector-strong -fno-plt -O2 -ffunction-sections -pipe  -fallow-argument-mismatch
PP flags        : -DFC_HAVE_ABORT -DCDF -DNCDF -DNCDF_4
Libraries       : libncdf.a libfdict.a -llapack -lblas -lnetcdff -lnetcdf -lhdf5_hl -lhdf5 -lz
SERIAL version
NetCDF support
NetCDF-4 support

* Running in serial mode
>> Start of run:  24-APR-2024  17:47:56

                           ***********************       
                           *  WELCOME TO SIESTA  *       
                           ***********************       

reinit: Reading from standard input
reinit: Dumped input in INPUT_TMP.10895
************************** Dump of input data file ****************************
LatticeConstant 1.0 Ang
%block LatticeVectors
 2.13000000 -1.22975607 0.00000000
 2.13000000 1.22975607 0.00000000
 0.00000000 0.00000000 14.20000000
%endblock LatticeVectors
NumberOfAtoms 2
AtomicCoordinatesFormat Ang
%block AtomicCoordinatesAndAtomicSpecies
 0.00000000 0.00000000 0.00000000 1 # 1: C
 1.42000000 0.00000000 0.00000000 1 # 2: C
%endblock AtomicCoordinatesAndAtomicSpecies
NumberOfSpecies 1
%block ChemicalSpeciesLabel
 1 6 C
%endblock ChemicalSpeciesLabel
%block kgrid.MonkhorstPack
   6 0 0  0
   0 6 0  0
   0 0 1  0
%endblock kgrid.MonkhorstPack
************************** End of input data file *****************************

reinit: -----------------------------------------------------------------------
reinit: System Name: 
reinit: -----------------------------------------------------------------------
reinit: System Label: siesta
reinit: -----------------------------------------------------------------------

initatom: Reading input for the pseudopotentials and atomic orbitals ----------
Species number:   1 Atomic number:    6 Label: C

Ground state valence configuration:   2s02  2p02
Reading pseudopotential information in formatted form from C.psf

Pseudopotential generated from a relativistic atomic calculation

Valence configuration for pseudopotential generation:
2s( 2.00) rc: 1.25
2p( 2.00) rc: 1.25
3d( 0.00) rc: 1.25
4f( 0.00) rc: 1.25
For C, standard SIESTA heuristics set lmxkb to 3
 (one more than the basis l, including polarization orbitals).
Use PS.lmax or PS.KBprojectors blocks to override.

<basis_specs>
===============================================================================
C                    Z=   6    Mass=  12.010        Charge= 0.17977+309
Lmxo=1 Lmxkb= 3    BasisType=split      Semic=F
L=0  Nsemic=0  Cnfigmx=2
          i=1  nzeta=2  polorb=0  (2s)
            splnorm:   0.15000    
               vcte:    0.0000    
               rinn:    0.0000    
               qcoe:    0.0000    
               qyuk:    0.0000    
               qwid:   0.10000E-01
                rcs:    0.0000      0.0000    
            lambdas:    1.0000      1.0000    
L=1  Nsemic=0  Cnfigmx=2
          i=1  nzeta=2  polorb=1  (2p)
            splnorm:   0.15000    
               vcte:    0.0000    
               rinn:    0.0000    
               qcoe:    0.0000    
               qyuk:    0.0000    
               qwid:   0.10000E-01
                rcs:    0.0000      0.0000    
            lambdas:    1.0000      1.0000    
-------------------------------------------------------------------------------
L=0  Nkbl=1  erefs: 0.17977+309
L=1  Nkbl=1  erefs: 0.17977+309
L=2  Nkbl=1  erefs: 0.17977+309
L=3  Nkbl=1  erefs: 0.17977+309
===============================================================================
</basis_specs>

atom: Called for C                     (Z =   6)

read_vps: Pseudopotential generation method:
read_vps: ATM3.3    Troullier-Martins                       
Valence charge for ps generation:    4.00000

xc_check: Exchange-correlation functional:
xc_check: Ceperley-Alder
xc_check: WARNING: Pseudopotential generated with GGA PBE functional
V l=0 = -2*Zval/r beyond r=  1.5418
V l=1 = -2*Zval/r beyond r=  1.5418
V l=2 = -2*Zval/r beyond r=  1.5418
V l=3 = -2*Zval/r beyond r=  1.5418
All V_l potentials equal beyond r=  1.2311
This should be close to max(r_c) in ps generation
All pots = -2*Zval/r beyond r=  1.5418

VLOCAL1: 99.0% of the norm of Vloc inside     28.641 Ry
VLOCAL1: 99.9% of the norm of Vloc inside     65.273 Ry
atom: Maximum radius for 4*pi*r*r*local-pseudopot. charge    1.48507
atom: Maximum radius for r*vlocal+2*Zval:    1.27815
GHOST: No ghost state for L =  0
GHOST: No ghost state for L =  1
GHOST: No ghost state for L =  2
GHOST: No ghost state for L =  3

KBgen: Kleinman-Bylander projectors: 
   l= 0   rc=  1.747182   el= -0.993899   Ekb=  7.812358   kbcos=  0.279839
   l= 1   rc=  1.769164   el= -0.376774   Ekb= -4.768156   kbcos= -0.274458
   l= 2   rc=  1.979871   el=  0.002326   Ekb= -1.289261   kbcos= -0.004956
   l= 3   rc=  2.055542   el=  0.003420   Ekb= -0.649350   kbcos= -0.000429

KBgen: Total number of Kleinman-Bylander projectors:   16
atom: -------------------------------------------------------------------------

atom: SANKEY-TYPE ORBITALS:
atom: Selected multiple-zeta basis: split     

SPLIT: Orbitals with angular momentum L= 0

SPLIT: Basis orbitals for state 2s

SPLIT: PAO cut-off radius determined from an
SPLIT: energy shift=  0.020000 Ry

   izeta = 1
                 lambda =    1.000000
                     rc =    4.191849
                 energy =   -0.975560
                kinetic =    0.915857
    potential(screened) =   -1.891417
       potential(ionic) =   -5.498410

   izeta = 2
                 rmatch =    3.431921
              splitnorm =    0.150000
                 energy =   -0.840243
                kinetic =    1.375148
    potential(screened) =   -2.215391
       potential(ionic) =   -6.053983

SPLIT: Orbitals with angular momentum L= 1

SPLIT: Basis orbitals for state 2p

SPLIT: PAO cut-off radius determined from an
SPLIT: energy shift=  0.020000 Ry

   izeta = 1
                 lambda =    1.000000
                     rc =    4.993604
                 energy =   -0.358260
                kinetic =    2.507442
    potential(screened) =   -2.865702
       potential(ionic) =   -6.348849

   izeta = 2
                 rmatch =    3.563077
              splitnorm =    0.150000
                 energy =   -0.203518
                kinetic =    3.776843
    potential(screened) =   -3.980361
       potential(ionic) =   -7.852926

POLgen: Perturbative polarization orbital with L=  2

POLgen: Polarization orbital for state 2p

   izeta = 1
                     rc =    4.993604
                 energy =    1.223507
                kinetic =    2.483429
    potential(screened) =   -1.259921
       potential(ionic) =   -4.159165
atom: Total number of Sankey-type orbitals: 13

atm_pop: Valence configuration (for local Pseudopot. screening):
 2s( 2.00)                                                            
 2p( 2.00)                                                            
Vna: chval, zval:    4.00000   4.00000

Vna:  Cut-off radius for the neutral-atom potential:   4.993604

atom: _________________________________________________________________________

prinput: Basis input ----------------------------------------------------------

PAO.BasisType split     

%block ChemicalSpeciesLabel
    1    6 C                       # Species index, atomic number, species label
%endblock ChemicalSpeciesLabel

%block PAO.Basis                 # Define Basis set
C                     2                    # Species label, number of l-shells
 n=2   0   2                         # n, l, Nzeta 
   4.192      3.432   
   1.000      1.000   
 n=2   1   2 P   1                   # n, l, Nzeta, Polarization, NzetaPol
   4.994      3.563   
   1.000      1.000   
%endblock PAO.Basis

prinput: ----------------------------------------------------------------------

Dumping basis to NetCDF file C.ion.nc
coor:   Atomic-coordinates input format  =     Cartesian coordinates
coor:                                          (in Angstroms)

siesta: Atomic coordinates (Bohr) and species
siesta:      0.00000   0.00000   0.00000  1        1
siesta:      2.68341   0.00000   0.00000  1        2

siesta: System type = slab      

initatomlists: Number of atoms, orbitals, and projectors:      2    26    32

siesta: ******************** Simulation parameters ****************************
siesta:
siesta: The following are some of the parameters of the simulation.
siesta: A complete list of the parameters used, including default values,
siesta: can be found in file out.fdf
siesta:
redata: Spin configuration                          = none
redata: Number of spin components                   = 1
redata: Time-Reversal Symmetry                      = T
redata: Spin spiral                                 = F
redata: Long output                                 =   F
redata: Number of Atomic Species                    =        1
redata: Charge density info will appear in .RHO file
redata: Write Mulliken Pop.                         = NO
redata: Matel table size (NRTAB)                    =     1024
redata: Mesh Cutoff                                 =   300.0000 Ry
redata: Net charge of the system                    =     0.0000 |e|
redata: Min. number of SCF Iter                     =        0
redata: Max. number of SCF Iter                     =     1000
redata: SCF convergence failure will abort job
redata: SCF mix quantity                            = Hamiltonian
redata: Mix DM or H after convergence               =   F
redata: Recompute H after scf cycle                 =   F
redata: Mix DM in first SCF step                    =   T
redata: Write Pulay info on disk                    =   F
redata: New DM Occupancy tolerance                  = 0.000000000001
redata: No kicks to SCF
redata: DM Mixing Weight for Kicks                  =     0.5000
redata: Require Harris convergence for SCF          =   F
redata: Harris energy tolerance for SCF             =     0.000100 eV
redata: Require DM convergence for SCF              =   T
redata: DM tolerance for SCF                        =     0.000100
redata: Require EDM convergence for SCF             =   F
redata: EDM tolerance for SCF                       =     0.001000 eV
redata: Require H convergence for SCF               =   T
redata: Hamiltonian tolerance for SCF               =     0.001000 eV
redata: Require (free) Energy convergence for SCF   =   F
redata: (free) Energy tolerance for SCF             =     0.000100 eV
redata: Using Saved Data (generic)                  =   F
redata: Use continuation files for DM               =   F
redata: Neglect nonoverlap interactions             =   F
redata: Method of Calculation                       = Diagonalization
redata: Electronic Temperature                      =   299.9869 K
redata: Fix the spin of the system                  =   F
redata: Dynamics option                             = Single-point calculation
mix.SCF: Pulay mixing                            = Pulay
mix.SCF:    Variant                              = stable
mix.SCF:    History steps                        = 2
mix.SCF:    Linear mixing weight                 =     0.250000
mix.SCF:    Mixing weight                        =     0.250000
mix.SCF:    SVD condition                        = 0.1000E-07
redata: Save all siesta data in one NC              =   F
redata: ***********************************************************************

%block SCF.Mixers
  Pulay
%endblock SCF.Mixers

%block SCF.Mixer.Pulay
  # Mixing method
  method pulay
  variant stable

  # Mixing options
  weight 0.2500
  weight.linear 0.2500
  history 2
%endblock SCF.Mixer.Pulay

DM_history_depth set to one: no extrapolation allowed by default for geometry relaxation
Size of DM history Fstack: 1
Total number of electrons:     8.000000
Total ionic charge:     8.000000
k-point displ. along   1 input, could be:     0.00    0.50
k-point displ. along   2 input, could be:     0.00    0.50
 Kpoints in:           24 . Kpoints trimmed:           22

siesta: k-grid: Number of k-points =    22
siesta: k-grid: Cutoff (effective) =     7.100 Ang
siesta: k-grid: Supercell and displacements
siesta: k-grid:    6   0   0      0.000
siesta: k-grid:    0   6   0      0.000
siesta: k-grid:    0   0   1      0.000

diag: Algorithm                                     = D&C
diag: Used triangular part                          = Lower
diag: Absolute tolerance                            =  0.100E-15
diag: Orthogonalization factor                      =  0.100E-05
diag: Memory factor                                 =  1.0000

superc: Internal auxiliary supercell:     5 x     5 x     1  =      25
superc: Number of atoms, orbitals, and projectors:     50    650    800


ts: **************************************************************
ts: Save H and S matrices                           =    F
ts: Save DM and EDM matrices                        =    F
ts: Only save the overlap matrix S                  =    F
ts: **************************************************************

************************ Begin: TS CHECKS AND WARNINGS ************************
************************ End: TS CHECKS AND WARNINGS **************************


                     ====================================
                        Single-point calculation
                     ====================================

superc: Internal auxiliary supercell:     5 x     5 x     1  =      25
superc: Number of atoms, orbitals, and projectors:     50    650    800

outcell: Unit cell vectors (Ang):
        2.130000   -1.229756    0.000000
        2.130000    1.229756    0.000000
        0.000000    0.000000   14.200000

outcell: Cell vector modules (Ang)   :    2.459512    2.459512   14.200000
outcell: Cell angles (23,13,12) (deg):     90.0000     90.0000     60.0000
outcell: Cell volume (Ang**3)        :     74.3904
<dSpData1D:S at geom step 0
  <sparsity:sparsity for geom step 0
    nrows_g=26 nrows=26 sparsity=18.5000 nnzs=12506, refcount: 7>
  <dData1D:(new from dSpData1D) n=12506, refcount: 1>
refcount: 1>
new_DM -- step:     1
Initializing Density Matrix...
DM filled with atomic data:
<dSpData2D:DM initialized from atoms
  <sparsity:sparsity for geom step 0
    nrows_g=26 nrows=26 sparsity=18.5000 nnzs=12506, refcount: 8>
  <dData2D:DM n=12506 m=1, refcount: 1>
refcount: 1>
No. of atoms with KB's overlaping orbs in proc 0. Max # of overlaps:      16     169
New grid distribution:   1
           1       1:   12    1:   12    1:   75

InitMesh: MESH =    24 x    24 x   150 =       86400
InitMesh: (bp) =    12 x    12 x    75 =       10800
InitMesh: Mesh cutoff (required, used) =   300.000   308.395 Ry
ExtMesh (bp) on 0 =    72 x    72 x   131 =      679104
PhiOnMesh: Number of (b)points on node 0 =                10800
PhiOnMesh: nlist on node 0 =               245428

stepf: Fermi-Dirac step function

siesta: Program's energy decomposition (eV):
siesta: Ebs     =       -98.338430
siesta: Eions   =       632.268963
siesta: Ena     =       207.040596
siesta: Ekin    =       228.485966
siesta: Enl     =        -5.703117
siesta: Eso     =         0.000000
siesta: Edftu   =         0.000000
siesta: DEna    =       -11.649624
siesta: DUscf   =         0.834072
siesta: DUext   =         0.000000
siesta: Exc     =       -95.259381
siesta: eta*DQ  =         0.000000
siesta: Emadel  =         0.000000
siesta: Emeta   =         0.000000
siesta: Emolmec =         0.000000
siesta: Ekinion =         0.000000
siesta: Eharris =      -306.728642
siesta: Etot    =      -308.520451
siesta: FreeEng =      -308.524432

        iscf     Eharris(eV)        E_KS(eV)     FreeEng(eV)     dDmax    Ef(eV) dHmax(eV)
   scf:    1     -306.728642     -308.520451     -308.524432  1.903905 -5.448432  3.171535
timer: Routine,Calls,Time,% = IterSCF        1       0.246  14.48
   scf:    2     -308.657967     -308.591210     -308.595192  0.027681 -4.902662  2.035875
   scf:    3     -308.686828     -308.646272     -308.650254  0.054788 -3.952203  0.059649
   scf:    4     -308.646308     -308.646290     -308.650272  0.000545 -3.977989  0.032709
   scf:    5     -308.646428     -308.646360     -308.650342  0.000485 -3.992118  0.019192
   scf:    6     -308.646456     -308.646411     -308.650393  0.000741 -4.010107  0.003965
   scf:    7     -308.646416     -308.646414     -308.650396  0.000140 -4.012373  0.001956
   scf:    8     -308.646414     -308.646414     -308.650396  0.000078 -4.013581  0.000737

SCF Convergence by DM+H criterion
max |DM_out - DM_in|         :     0.0000775749
max |H_out - H_in|      (eV) :     0.0007368254
SCF cycle converged after 8 iterations

Using DM_out to compute the final energy and forces
No. of atoms with KB's overlaping orbs in proc 0. Max # of overlaps:      16     169

siesta: E_KS(eV) =             -308.6464

siesta: E_KS - E_eggbox =      -308.6464

siesta: Atomic forces (eV/Ang):
----------------------------------------
   Tot   -0.000000    0.000000   -0.000000
----------------------------------------
   Max    0.000000
   Res    0.000000    sqrt( Sum f_i^2 / 3N )
----------------------------------------
   Max    0.000000    constrained

Stress tensor Voigt[x,y,z,yz,xz,xy] (kbar):      -37.57      -37.57        0.06       -0.00       -0.00        0.00
(Free)E + p*V (eV/cell)     -307.4883
Target enthalpy (eV/cell)     -308.6504

siesta: Program's energy decomposition (eV):
siesta: Ebs     =      -105.529467
siesta: Eions   =       632.268963
siesta: Ena     =       207.040596
siesta: Ekin    =       222.823304
siesta: Enl     =        -4.745068
siesta: Eso     =         0.000000
siesta: Edftu   =         0.000000
siesta: DEna    =        -7.677442
siesta: DUscf   =         0.529425
siesta: DUext   =         0.000000
siesta: Exc     =       -94.348265
siesta: eta*DQ  =         0.000000
siesta: Emadel  =         0.000000
siesta: Emeta   =         0.000000
siesta: Emolmec =         0.000000
siesta: Ekinion =         0.000000
siesta: Eharris =      -308.646414
siesta: Etot    =      -308.646414
siesta: FreeEng =      -308.650396

siesta: Final energy (eV):
siesta:  Band Struct. =    -105.529467
siesta:       Kinetic =     222.823304
siesta:       Hartree =    1023.217775
siesta:       Edftu   =       0.000000
siesta:       Eso     =       0.000000
siesta:    Ext. field =       0.000000
siesta:   Exch.-corr. =     -94.348265
siesta:  Ion-electron =   -2251.435157
siesta:       Ion-ion =     791.095931
siesta:       Ekinion =       0.000000
siesta:         Total =    -308.646414
siesta:         Fermi =      -4.013581

siesta: Stress tensor (static) (eV/Ang**3):
siesta:    -0.023449    0.000000    0.000000
siesta:     0.000000   -0.023449    0.000000
siesta:    -0.000000   -0.000000    0.000035

siesta: Cell volume =         74.390404 Ang**3

siesta: Pressure (static):
siesta:                Solid            Molecule  Units
siesta:           0.00017014          0.00017014  Ry/Bohr**3
siesta:           0.01562139          0.01562139  eV/Ang**3
siesta:          25.02850113         25.02849891  kBar
(Free)E+ p_basis*V_orbitals  =        -308.017583
(Free)Eharris+ p_basis*V_orbitals  =        -308.017584

siesta: Electric dipole (a.u.)  =   -0.000000   -0.000000   -0.000000
siesta: Electric dipole (Debye) =   -0.000000   -0.000000   -0.000000

cite: Please see "siesta.bib" for an exhaustive BiBTeX file.
cite: Please clearly indicate Siesta version in published work: 4.1.5
cite: This calculation has made use of the following articles
cite: which are encouraged to be cited in a published work.
        Primary SIESTA paper
          DOI: www.doi.org/10.1088/0953-8984/14/11/302


timer: Elapsed wall time (sec) =       1.606
timer: CPU execution times (sec):

Routine            Calls   Time/call    Tot.time        %
siesta                 1       3.177       3.177    99.99
Setup                  1       0.753       0.753    23.70
bands                  1       0.000       0.000     0.00
KSV_init               1       0.000       0.000     0.00
IterGeom               1       2.423       2.423    76.27
state_init             1       0.250       0.250     7.85
hsparse                1       0.014       0.014     0.45
overlap                1       0.216       0.216     6.78
Setup_H0               1       0.453       0.453    14.25
naefs                  2       0.000       0.000     0.01
MolMec                 2       0.000       0.000     0.00
kinefsm                2       0.030       0.061     1.91
nlefsm                 2       0.142       0.284     8.95
DHSCF_Init             1       0.143       0.143     4.51
DHSCF1                 1       0.010       0.010     0.31
INITMESH               1       0.000       0.000     0.00
DHSCF2                 1       0.133       0.133     4.20
REMESH                 1       0.027       0.027     0.85
REORD                 28       0.000       0.004     0.13
PHION                  1       0.093       0.093     2.93
COMM_BSC              43       0.000       0.005     0.15
POISON                11       0.004       0.042     1.31
fft                   22       0.001       0.030     0.96
IterSCF                8       0.183       1.465    46.10
setup_H                9       0.141       1.268    39.92
DHSCF                 10       0.149       1.485    46.74
DHSCF3                10       0.134       1.341    42.21
rhoofd                10       0.068       0.684    21.52
XC                    10       0.005       0.050     1.56
GXC-CellXC            10       0.005       0.047     1.49
cellXC                10       0.005       0.047     1.49
vmat                  10       0.055       0.549    17.28
compute_dm             8       0.024       0.192     6.03
diagon                 8       0.024       0.191     6.02
c-eigval             176       0.000       0.064     2.02
c-buildHS            176       0.000       0.046     1.45
cdiag                352       0.000       0.045     1.40
cdiag1               352       0.000       0.002     0.05
cdiag2               352       0.000       0.010     0.31
cdiag3               352       0.000       0.031     0.97
c-eigvec             176       0.000       0.072     2.27
cdiag4               176       0.000       0.001     0.02
c-buildD             176       0.000       0.053     1.67
MIXER                  7       0.000       0.001     0.03
PostSCF                1       0.256       0.256     8.04
DHSCF4                 1       0.144       0.144     4.53
dfscf                  1       0.132       0.132     4.15
overfsm                1       0.002       0.002     0.07
state_analysis         1       0.000       0.000     0.01
siesta_move            1       0.000       0.000     0.00
Analysis               1       0.001       0.001     0.02
siesta_analysis        1       0.001       0.001     0.02
optical                1       0.000       0.000     0.00
  
>> End of run:  24-APR-2024  17:47:58
Job completed
